2
Lattice="22.64 0.0 0.0 0.0 22.64 0.0 0.0 0.0 22.64" Properties=species:S:1:pos:R:3:forces:R:3 config_type=dimer energy=-0.59728409 free_energy=-0.6303292 pbc="T T T"
Ge       0.00000000       0.00000000       0.00000000      -0.00000000       0.00000000       0.56275700
Ge       0.00000000       0.00000000       5.00000000       0.00000000      -0.00000000      -0.56275700
2
Lattice="22.64 0.0 0.0 0.0 22.64 0.0 0.0 0.0 22.64" Properties=species:S:1:pos:R:3:forces:R:3 config_type=dimer energy=-0.87761329 free_energy=-0.90624209 pbc="T T T"
Ge       0.00000000       0.00000000       0.00000000       0.00000000       0.00000000       0.82584700
Ge       0.00000000       0.00000000       4.60000000      -0.00000000      -0.00000000      -0.82584700
2
Lattice="22.64 0.0 0.0 0.0 22.64 0.0 0.0 0.0 22.64" Properties=species:S:1:pos:R:3:forces:R:3 config_type=dimer energy=-1.27264257 free_energy=-1.30085209 pbc="T T T"
Ge       0.00000000       0.00000000       0.00000000       0.00000000      -0.00000000       1.15689700
Ge       0.00000000       0.00000000       4.20000000      -0.00000000       0.00000000      -1.15689700
2
Lattice="22.64 0.0 0.0 0.0 22.64 0.0 0.0 0.0 22.64" Properties=species:S:1:pos:R:3:forces:R:3 config_type=dimer energy=-1.81489659 free_energy=-1.84310607 pbc="T T T"
Ge       0.00000000       0.00000000       0.00000000       0.00000000       0.00000000       1.55689800
Ge       0.00000000       0.00000000       3.80000000      -0.00000000      -0.00000000      -1.55689800
2
Lattice="22.64 0.0 0.0 0.0 22.64 0.0 0.0 0.0 22.64" Properties=species:S:1:pos:R:3:forces:R:3 config_type=dimer energy=-2.52288275 free_energy=-2.55109223 pbc="T T T"
Ge       0.00000000       0.00000000       0.00000000      -0.00000000      -0.00000000       1.96386600
Ge       0.00000000       0.00000000       3.40000000       0.00000000       0.00000000      -1.96386600
2
Lattice="22.64 0.0 0.0 0.0 22.64 0.0 0.0 0.0 22.64" Properties=species:S:1:pos:R:3:forces:R:3 config_type=dimer energy=-3.35400118 free_energy=-3.38221066 pbc="T T T"
Ge       0.00000000       0.00000000       0.00000000       0.00000000      -0.00000000       2.10801600
Ge       0.00000000       0.00000000       3.00000000      -0.00000000       0.00000000      -2.10801600
2
Lattice="22.64 0.0 0.0 0.0 22.64 0.0 0.0 0.0 22.64" Properties=species:S:1:pos:R:3:forces:R:3 config_type=dimer energy=-3.56152658 free_energy=-3.58973606 pbc="T T T"
Ge       0.00000000       0.00000000       0.00000000      -0.00000000       0.00000000       2.03100000
Ge       0.00000000       0.00000000       2.90000000       0.00000000      -0.00000000      -2.03100000
2
Lattice="22.64 0.0 0.0 0.0 22.64 0.0 0.0 0.0 22.64" Properties=species:S:1:pos:R:3:forces:R:3 config_type=dimer energy=-3.75856848 free_energy=-3.78677796 pbc="T T T"
Ge       0.00000000       0.00000000       0.00000000      -0.00000000      -0.00000000       1.87431100
Ge       0.00000000       0.00000000       2.80000000       0.00000000       0.00000000      -1.87431100
2
Lattice="22.64 0.0 0.0 0.0 22.64 0.0 0.0 0.0 22.64" Properties=species:S:1:pos:R:3:forces:R:3 config_type=dimer energy=-3.93365724 free_energy=-3.96186672 pbc="T T T"
Ge       0.00000000       0.00000000       0.00000000       0.00000000      -0.00000000       1.60926800
Ge       0.00000000       0.00000000       2.70000000      -0.00000000       0.00000000      -1.60926800
2
Lattice="22.64 0.0 0.0 0.0 22.64 0.0 0.0 0.0 22.64" Properties=species:S:1:pos:R:3:forces:R:3 config_type=dimer energy=-4.07553317 free_energy=-4.10374268 pbc="T T T"
Ge       0.00000000       0.00000000       0.00000000      -0.00000000       0.00000000       1.19504500
Ge       0.00000000       0.00000000       2.60000000       0.00000000      -0.00000000      -1.19504500
2
Lattice="22.64 0.0 0.0 0.0 22.64 0.0 0.0 0.0 22.64" Properties=species:S:1:pos:R:3:forces:R:3 config_type=dimer energy=-4.16606272 free_energy=-4.19520693 pbc="T T T"
Ge       0.00000000       0.00000000       0.00000000      -0.00000000       0.00000000       0.60645300
Ge       0.00000000       0.00000000       2.50000000       0.00000000      -0.00000000      -0.60645300
2
Lattice="22.64 0.0 0.0 0.0 22.64 0.0 0.0 0.0 22.64" Properties=species:S:1:pos:R:3:forces:R:3 config_type=dimer energy=-4.19236335 free_energy=-4.22664643 pbc="T T T"
Ge       0.00000000       0.00000000       0.00000000       0.00000000      -0.00000000       0.01226700
Ge       0.00000000       0.00000000       2.40000000      -0.00000000       0.00000000      -0.01226700
2
Lattice="22.64 0.0 0.0 0.0 22.64 0.0 0.0 0.0 22.64" Properties=species:S:1:pos:R:3:forces:R:3 config_type=dimer energy=-4.15814204 free_energy=-4.19479558 pbc="T T T"
Ge       0.00000000       0.00000000       0.00000000      -0.00000000       0.00000000      -0.83620700
Ge       0.00000000       0.00000000       2.30000000       0.00000000      -0.00000000       0.83620700
2
Lattice="22.64 0.0 0.0 0.0 22.64 0.0 0.0 0.0 22.64" Properties=species:S:1:pos:R:3:forces:R:3 config_type=dimer energy=-4.03989571 free_energy=-4.07823326 pbc="T T T"
Ge       0.00000000       0.00000000       0.00000000      -0.00000000       0.00000000      -1.65408500
Ge       0.00000000       0.00000000       2.20000000       0.00000000      -0.00000000       1.65408500
2
Lattice="22.64 0.0 0.0 0.0 22.64 0.0 0.0 0.0 22.64" Properties=species:S:1:pos:R:3:forces:R:3 config_type=dimer energy=-3.81498965 free_energy=-3.8500334 pbc="T T T"
Ge       0.00000000       0.00000000       0.00000000       0.00000000      -0.00000000      -3.04027100
Ge       0.00000000       0.00000000       2.10000000      -0.00000000       0.00000000       3.04027100
2
Lattice="22.64 0.0 0.0 0.0 22.64 0.0 0.0 0.0 22.64" Properties=species:S:1:pos:R:3:forces:R:3 config_type=dimer energy=-2.76508045 free_energy=-2.77612535 pbc="T T T"
Ge       0.00000000       0.00000000       0.00000000       0.00000000      -0.00000000      -8.57268600
Ge       0.00000000       0.00000000       1.90000000      -0.00000000       0.00000000       8.57268600
2
Lattice="22.64 0.0 0.0 0.0 22.64 0.0 0.0 0.0 22.64" Properties=species:S:1:pos:R:3:forces:R:3 config_type=dimer energy=0.21740604 free_energy=0.21740604 pbc="T T T"
Ge       0.00000000       0.00000000       0.00000000      -0.00000000       0.00000000     -23.08339900
Ge       0.00000000       0.00000000       1.70000000       0.00000000      -0.00000000      23.08339900
2
Lattice="22.64 0.0 0.0 0.0 22.64 0.0 0.0 0.0 22.64" Properties=species:S:1:pos:R:3:forces:R:3 config_type=dimer energy=6.97560423 free_energy=6.97560423 pbc="T T T"
Ge       0.00000000       0.00000000       0.00000000       0.00000000      -0.00000000     -46.24134900
Ge       0.00000000       0.00000000       1.50000000      -0.00000000       0.00000000      46.24134900
2
Lattice="22.64 0.0 0.0 0.0 22.64 0.0 0.0 0.0 22.64" Properties=species:S:1:pos:R:3:forces:R:3 config_type=dimer free_energy=11.908301351405596 pbc="T T T"
Ge       0.00000000       0.00000000       0.00000000       0.00000000      -0.00000000     -60.266071070433256
Ge       0.00000000       0.00000000       1.39839733      -0.00000000       0.00000000      60.266071070433256
2
Lattice="22.64 0.0 0.0 0.0 22.64 0.0 0.0 0.0 22.64" Properties=species:S:1:pos:R:3:forces:R:3 config_type=dimer free_energy=19.816597437669653 pbc="T T T"
Ge       0.00000000       0.00000000       0.00000000       0.00000000      -0.00000000     -101.38198679558013
Ge       0.00000000       0.00000000       1.29829716      -0.00000000       0.00000000      101.38198679558013
2
Lattice="22.64 0.0 0.0 0.0 22.64 0.0 0.0 0.0 22.64" Properties=species:S:1:pos:R:3:forces:R:3 config_type=dimer free_energy=33.17417486514462 pbc="T T T"
Ge       0.00000000       0.00000000       0.00000000       0.00000000      -0.00000000     -171.85698241228306
Ge       0.00000000       0.00000000       1.19819699      -0.00000000       0.00000000      171.85698241228306
2
Lattice="22.64 0.0 0.0 0.0 22.64 0.0 0.0 0.0 22.64" Properties=species:S:1:pos:R:3:forces:R:3 config_type=dimer free_energy=55.92665293135281 pbc="T T T"
Ge       0.00000000       0.00000000       0.00000000       0.00000000      -0.00000000     -293.9915067859212
Ge       0.00000000       0.00000000       1.09809683      -0.00000000       0.00000000      293.9915067859212
2
Lattice="22.64 0.0 0.0 0.0 22.64 0.0 0.0 0.0 22.64" Properties=species:S:1:pos:R:3:forces:R:3 config_type=dimer free_energy=95.07721076276123 pbc="T T T"
Ge       0.00000000       0.00000000       0.00000000       0.00000000      -0.00000000     -508.53000421041344
Ge       0.00000000       0.00000000       0.99799666      -0.00000000       0.00000000      508.53000421041344
2
Lattice="22.64 0.0 0.0 0.0 22.64 0.0 0.0 0.0 22.64" Properties=species:S:1:pos:R:3:forces:R:3 config_type=dimer free_energy=163.29122234927453 pbc="T T T"
Ge       0.00000000       0.00000000       0.00000000       0.00000000      -0.00000000     -891.8359859137865
Ge       0.00000000       0.00000000       0.89789649      -0.00000000       0.00000000      891.8359859137865
2
Lattice="22.64 0.0 0.0 0.0 22.64 0.0 0.0 0.0 22.64" Properties=species:S:1:pos:R:3:forces:R:3 config_type=dimer free_energy=284.03702398484853 pbc="T T T"
Ge       0.00000000       0.00000000       0.00000000       0.00000000      -0.00000000     -1591.9380159451543
Ge       0.00000000       0.00000000       0.79779633      -0.00000000       0.00000000      1591.9380159451543
2
Lattice="22.64 0.0 0.0 0.0 22.64 0.0 0.0 0.0 22.64" Properties=species:S:1:pos:R:3:forces:R:3 config_type=dimer free_energy=502.24445966169515 pbc="T T T"
Ge       0.00000000       0.00000000       0.00000000       0.00000000      -0.00000000     -2909.4244628936995
Ge       0.00000000       0.00000000       0.69769616      -0.00000000       0.00000000      2909.4244628936995
2
Lattice="22.64 0.0 0.0 0.0 22.64 0.0 0.0 0.0 22.64" Properties=species:S:1:pos:R:3:forces:R:3 config_type=dimer free_energy=907.9908281148905 pbc="T T T"
Ge       0.00000000       0.00000000       0.00000000       0.00000000      -0.00000000     -5496.771840641604
Ge       0.00000000       0.00000000       0.59759599      -0.00000000       0.00000000      5496.771840641604
2
Lattice="22.64 0.0 0.0 0.0 22.64 0.0 0.0 0.0 22.64" Properties=species:S:1:pos:R:3:forces:R:3 config_type=dimer free_energy=1694.6858383740948 pbc="T T T"
Ge       0.00000000       0.00000000       0.00000000       0.00000000      -0.00000000     -10917.889648008013
Ge       0.00000000       0.00000000       0.49749583      -0.00000000       0.00000000      10917.889648008013
2
Lattice="22.64 0.0 0.0 0.0 22.64 0.0 0.0 0.0 22.64" Properties=species:S:1:pos:R:3:forces:R:3 config_type=dimer free_energy=3324.4241185447295 pbc="T T T"
Ge       0.00000000       0.00000000       0.00000000       0.00000000      -0.00000000     -23525.98221961437
Ge       0.00000000       0.00000000       0.39739566      -0.00000000       0.00000000      23525.98221961437
2
Lattice="22.64 0.0 0.0 0.0 22.64 0.0 0.0 0.0 22.64" Properties=species:S:1:pos:R:3:forces:R:3 config_type=dimer free_energy=7107.628704428444 pbc="T T T"
Ge       0.00000000       0.00000000       0.00000000       0.00000000      -0.00000000     -58497.128958274676
Ge       0.00000000       0.00000000       0.29729549      -0.00000000       0.00000000      58497.128958274676
2
Lattice="22.64 0.0 0.0 0.0 22.64 0.0 0.0 0.0 22.64" Properties=species:S:1:pos:R:3:forces:R:3 config_type=dimer free_energy=17972.933015740855 pbc="T T T"
Ge       0.00000000       0.00000000       0.00000000       0.00000000      -0.00000000     -190940.70584786613
Ge       0.00000000       0.00000000       0.19719533      -0.00000000       0.00000000      190940.70584786613
1
Lattice="0.019433527684847678 2.3097256878414814 2.2402875570820986 2.057988447080116 -0.13897367038991962 2.3199328263656773 2.098252928482818 2.231806141473872 -0.19238619774035853" Properties=species:S:1:pos:R:3:forces:R:3 virial="-0.9826853751693555 0.04836677358689761 0.040421580854828276 0.04836677358689761 -1.080890511651856 0.00805851565740127 0.040421580854828276 0.00805851565740127 -1.057993963314547" config_type=fcc_bulk energy=-4.0936654 stress="0.0427242152964513 -0.002102842374717543 -0.0017574092041076424 -0.002102842374717543 0.04699388033911324 -0.0003503601118082175 -0.0017574092041076424 -0.0003503601118082175 0.04599840703155516" free_energy=-4.09401418 pbc="T T T"
Ge       0.00000000       0.00000000       0.00000000      -0.00000000       0.00000000      -0.00000000
1
Lattice="-0.009583268555479548 2.1939707380526587 2.2449157765318435 2.1273471282840113 0.15331625013196046 2.071677897741036 2.326427937508748 2.0205751530761433 -0.12842828326096783" Properties=species:S:1:pos:R:3:forces:R:3 virial="-0.15904517277383173 0.002218157838754029 0.046375879486618185 0.002218157838754029 -0.1980245023609189 -0.17626611144217602 0.046375879486618185 -0.17626611144217602 -0.09831442099909565" config_type=fcc_bulk energy=-4.17305131 stress="0.007927374370035496 -0.00011056083811256173 -0.0023115379864616734 -0.00011056083811256173 0.009870242128551225 0.008785726908792004 -0.0023115379864616734 0.008785726908792004 0.00490033873798491" free_energy=-4.17329888 pbc="T T T"
Ge       0.00000000       0.00000000       0.00000000       0.00000000       0.00000000      -0.00000000
1
Lattice="0.12930445048061134 2.0398007658388977 1.9609890204669318 1.9314941712315477 0.19419501925317376 2.087760581811546 2.217513668101166 1.9463359061318581 0.0912454771263303" Properties=species:S:1:pos:R:3:forces:R:3 virial="2.9278396222166134 -0.648175999859806 -0.17768838351777078 -0.648175999859806 2.929084513799421 -0.35636364426817474 -0.17768838351777078 -0.35636364426817474 2.7082682315269233" config_type=fcc_bulk energy=-3.81395183 stress="-0.19404489623295346 0.04295837916773077 0.01177643873656005 0.04295837916773077 -0.19412740241128854 0.023618283545484127 0.01177643873656005 0.023618283545484127 -0.17949262793287168" free_energy=-3.8141701 pbc="T T T"
Ge       0.00000000       0.00000000       0.00000000       0.00000000      -0.00000000      -0.00000000
1
Lattice="0.09845449919558913 2.222941785967209 2.0075676693378934 1.9997578454120402 -0.11441247897214638 2.09665403226898 1.985830887634709 2.279275830216856 0.008991127131132301" Properties=species:S:1:pos:R:3:forces:R:3 virial="0.5439586907402616 0.034519066803461645 -0.18340541830762408 0.034519066803461645 0.46789332586547283 0.033702894124037173 -0.18340541830762408 0.033702894124037173 0.6046525555046192" config_type=fcc_bulk energy=-4.16408357 stress="-0.02964111594406309 -0.0018809951542640812 0.009994033299527723 -0.0018809951542640812 -0.025496201379847275 -0.001836520694285742 0.009994033299527723 -0.001836520694285742 -0.032948414665819596" free_energy=-4.16433755 pbc="T T T"
Ge       0.00000000       0.00000000       0.00000000      -0.00000000       0.00000000       0.00000000
1
Lattice="0.15949599704119147 2.271916557750964 2.0903939215389 2.043829635263114 -0.0057195261291942525 2.0588146713419215 2.267654743587082 2.0488430111187816 0.09110089655733407" Properties=species:S:1:pos:R:3:forces:R:3 virial="0.5153689472590128 -0.038737345492375785 -0.07306937819294355 -0.038737345492375785 0.5923331372788426 -0.20169412929537073 -0.07306937819294355 -0.20169412929537073 0.6241377080357134" config_type=fcc_bulk energy=-4.15996846 stress="-0.028175209064940563 0.0021177698300863888 0.003994701306279353 0.0021177698300863888 -0.032382839648536214 0.01102661363338251 0.003994701306279353 0.01102661363338251 -0.0341215948355948" free_energy=-4.16029376 pbc="T T T"
Ge       0.00000000       0.00000000       0.00000000       0.00000000      -0.00000000      -0.00000000
1
Lattice="-0.12017912316877975 2.241476463876813 2.219884437437804 2.2619377358595436 -0.1961196295418269 2.3503432087999157 2.2677605200041664 2.3188022034937714 0.12943090844461963" Properties=species:S:1:pos:R:3:forces:R:3 virial="-1.3604482432831255 0.010342954089196886 -0.03424102821298969 0.010342954089196886 -1.3896705745072762 0.05402936870373884 -0.03424102821298969 0.05402936870373884 -1.3134387230609663" config_type=fcc_bulk subconfig_type=fcc_target energy=-4.01737605 stress="0.05534897491246678 -0.0004207965346937611 0.001393074540611846 -0.0004207965346937611 0.05653786694551173 -0.0021981506372508917 0.001393074540611846 -0.0021981506372508917 0.053436422363503766" free_energy=-4.01773549 pbc="T T T"
Ge       0.00000000       0.00000000       0.00000000      -0.00000000      -0.00000000      -0.00000000
1
Lattice="0.1007878965743961 2.2923448146360292 2.2021226064219617 2.004328707501048 0.09862537576564427 2.1749714944184326 2.3474345169124837 2.230596399285532 0.12707590182179324" Properties=species:S:1:pos:R:3:forces:R:3 virial="-0.12607766412453905 -0.14326473659135947 0.005217489321995797 -0.14326473659135947 -0.05989866562986189 -0.08529207293112415 0.005217489321995797 -0.08529207293112415 -0.1701473752299052" config_type=fcc_bulk energy=-4.17256435 stress="0.006314061757403969 0.007174802934185969 -0.0002612956864836559 0.007174802934185969 0.0029997690439398533 0.0042714894794700035 -0.0002612956864836559 0.0042714894794700035 0.008521105165785728" free_energy=-4.17287564 pbc="T T T"
Ge       0.00000000       0.00000000       0.00000000      -0.00000000      -0.00000000      -0.00000000
1
Lattice="0.06984114719686615 2.3424837951912365 2.062121972102625 1.9585645256689057 0.03867313816702515 2.2767545447378756 2.21915704472105 2.0913025959693816 -0.03837774843993533" Properties=species:S:1:pos:R:3:forces:R:3 virial="-0.1479790328084884 -0.03448454651222104 0.020520166611164365 -0.03448454651222104 -0.17052272752583095 -0.0616329086086615 0.020520166611164365 -0.0616329086086615 -0.17447426144291805" config_type=fcc_bulk energy=-4.18637133 stress="0.007418184003999169 0.0017287091722865315 -0.0010286752712550878 0.0017287091722865315 0.008548298672066105 0.0030896556632615674 -0.0010286752712550878 0.0030896556632615674 0.008746388936197865" free_energy=-4.18667233 pbc="T T T"
Ge       0.00000000       0.00000000       0.00000000      -0.00000000       0.00000000      -0.00000000
1
Lattice="-0.08774415772202099 2.0673171845656726 2.0966979147123577 1.999013875686471 -0.030387650658264473 2.2180094847462484 1.9256951804826317 2.2923023871269272 0.19630802491819124" Properties=species:S:1:pos:R:3:forces:R:3 virial="0.6269494447367399 0.026006159340918798 -0.2553274471516718 0.026006159340918798 0.5970671635912774 0.05366614203596723 -0.2553274471516718 0.05366614203596723 0.6359771053482679" config_type=fcc_bulk energy=-4.15649715 stress="-0.034455695198220684 -0.0014292385248117084 0.014032207490815986 -0.0014292385248117084 -0.03281343396070107 -0.0029493673660276644 0.014032207490815986 -0.0029493673660276644 -0.03495183459988234" free_energy=-4.15672561 pbc="T T T"
Ge       0.00000000       0.00000000       0.00000000       0.00000000       0.00000000      -0.00000000
1
Lattice="-0.12569441231525852 1.9427828126245918 2.1405511520555787 2.0035521817761506 -0.14494090294364934 2.10303461881146 2.0226030943042006 2.3156208151272746 0.12921091231028292" Properties=species:S:1:pos:R:3:forces:R:3 virial="0.2112178200946804 -0.06029205793893631 0.07316975745930475 -0.06029205793893631 0.3011619689416268 0.1479930477989494 0.07316975745930475 0.1479930477989494 0.3539512891957028" config_type=fcc_bulk energy=-4.17383984 stress="-0.011155548119954192 0.003184347576768735 -0.0038644880905255065 0.003184347576768735 -0.015905981961761004 -0.007816308138204484 -0.0038644880905255065 -0.007816308138204484 -0.018694069643236177" free_energy=-4.17411537 pbc="T T T"
Ge       0.00000000       0.00000000       0.00000000      -0.00000000       0.00000000       0.00000000
1
Lattice="0.07966522358200309 1.9638365335634917 2.322173519592586 1.9732279011265716 -0.1800158776231532 1.946541295674146 1.9839252482602787 2.0418845141260813 0.01959247475241524" Properties=species:S:1:pos:R:3:forces:R:3 virial="1.0280641714866028 0.001118667851889859 0.25104790465640175 0.001118667851889859 1.04627409993224 -0.10318984831427724 0.25104790465640175 -0.10318984831427724 1.078869871670977" config_type=fcc_bulk energy=-4.11910949 stress="-0.05916336928738188 -6.437745917706503e-05 -0.014447385974488938 -6.437745917706503e-05 -0.06021132013637232 0.005938402749410535 -0.014447385974488938 0.005938402749410535 -0.06208715214576673" free_energy=-4.1193692 pbc="T T T"
Ge       0.00000000       0.00000000       0.00000000       0.00000000       0.00000000       0.00000000
1
Lattice="-0.08978126998777582 2.2892073927452485 2.2941885477111605 2.2184231578220093 -0.18434321772878326 2.3266579922889576 2.18954037432836 2.308471336485717 0.1260605566850394" Properties=species:S:1:pos:R:3:forces:R:3 virial="-1.2605203339665838 0.044560933428364716 -0.017656979354814598 0.044560933428364716 -1.3289151982666187 0.004149078450535525 -0.017656979354814598 0.004149078450535525 -1.2423269301712894" config_type=fcc_bulk subconfig_type=fcc_target energy=-4.04014582 stress="0.05212861576290953 -0.001842810238065858 0.0007302015425838874 -0.001842810238065858 0.05495707438049767 -0.0001715844722929064 0.0007302015425838874 -0.0001715844722929064 0.05137623047382818" free_energy=-4.04044631 pbc="T T T"
Ge       0.00000000       0.00000000       0.00000000       0.00000000      -0.00000000      -0.00000000
1
Lattice="-0.18657516895628037 2.2817634764160575 2.1141758593751665 2.298022741943965 -0.14716559557427825 2.143069316298684 2.200802356967146 2.2525672157393495 0.19186912438751388" Properties=species:S:1:pos:R:3:forces:R:3 virial="-0.9097872623336295 0.04147608224057684 -0.04613709710872068 0.04147608224057684 -0.8873623368746731 0.01939201726245606 -0.04613709710872068 0.01939201726245606 -0.8666150805471212" config_type=fcc_bulk energy=-4.12363503 stress="0.04081518132335988 -0.0018607139133708173 0.0020698179257815823 -0.0018607139133708173 0.03980914679565895 -0.0008699711828924474 0.0020698179257815823 -0.0008699711828924474 0.03887837642325433" free_energy=-4.12395703 pbc="T T T"
Ge       0.00000000       0.00000000       0.00000000       0.00000000      -0.00000000      -0.00000000
1
Lattice="0.05759887610501518 2.2871973416014675 2.297248638471204 2.2589744507286627 0.10011780812790595 2.3147017225047457 2.14028876995978 2.2864163272078373 0.085826533957281" Properties=species:S:1:pos:R:3:forces:R:3 virial="-0.7889022944639921 -0.024257483233920196 -0.09001011854567847 -0.024257483233920196 -0.758826365119205 -0.06457445474335873 -0.09001011854567847 -0.06457445474335873 -0.7870118622291628" config_type=fcc_bulk energy=-4.13777291 stress="0.035930691930366236 0.0011048112842366598 0.00409952647213163 0.0011048112842366598 0.034560878508108114 0.0029410547494115574 0.00409952647213163 0.0029410547494115574 0.03584459186611045" free_energy=-4.13806378 pbc="T T T"
Ge       0.00000000       0.00000000       0.00000000      -0.00000000       0.00000000       0.00000000
1
Lattice="-0.09350725250787754 2.3283857921726145 2.249362442333886 2.0830273842649665 -0.09917906455811161 2.1376081098071684 2.1870189659567942 2.2164501020161778 -0.11575074782024389" Properties=species:S:1:pos:R:3:forces:R:3 virial="-0.9444699435488136 0.04988237470261734 0.14378926231711933 0.04988237470261734 -0.9621063509103474 -0.03702676873384133 0.14378926231711933 -0.03702676873384133 -0.9736262734835602" config_type=fcc_bulk energy=-4.10200576 stress="0.04149404629110415 -0.0021915166058575908 -0.006317192354826803 -0.0021915166058575908 0.042268878680919025 0.0016267224450564146 -0.006317192354826803 0.0016267224450564146 0.042774991346322365" free_energy=-4.10236241 pbc="T T T"
Ge       0.00000000       0.00000000       0.00000000       0.00000000       0.00000000       0.00000000
1
Lattice="0.16211980206355409 1.9672445506707117 2.164348628625668 2.022859659688 0.18654495192033246 1.981295436530098 2.1288234055701967 2.2033467879500863 0.20137073715387058" Properties=species:S:1:pos:R:3:forces:R:3 virial="2.5957464453686283 -0.6660573119357718 -0.2399593890136591 -0.6660573119357718 2.752892815657348 -0.3191245218298945 -0.2399593890136591 -0.3191245218298945 2.1443064225203963" config_type=fcc_bulk energy=-3.87237896 stress="-0.16659009410381231 0.04274629768708207 0.015400139435114145 0.04274629768708207 -0.17667545073068142 0.02048080782979804 0.015400139435114145 0.02048080782979804 -0.13761752784153472" free_energy=-3.87265623 pbc="T T T"
Ge       0.00000000       0.00000000       0.00000000      -0.00000000      -0.00000000       0.00000000
1
Lattice="-0.06643509396449178 2.2414733448661566 2.013194165123044 2.278696611407324 -0.18951016714612182 2.325911589445661 2.1149730464941716 1.9668240165835333 0.10316332281855914" Properties=species:S:1:pos:R:3:forces:R:3 virial="-0.18740738527808823 0.20890588194447177 -0.18224874547562234 0.20890588194447177 -0.28625984855435427 0.15312036477507224 -0.18224874547562234 0.15312036477507224 -0.3840351416512886" config_type=fcc_bulk energy=-4.1495927 stress="0.009082335693260916 -0.01012421866566785 0.00883233221374441 -0.01012421866566785 0.013873028729442812 -0.007420681699913618 0.00883233221374441 -0.007420681699913618 0.018611518800661808" free_energy=-4.14987397 pbc="T T T"
Ge       0.00000000       0.00000000       0.00000000      -0.00000000       0.00000000      -0.00000000
1
Lattice="-0.07118117548965648 2.1475753051153847 2.017053838095296 2.234485369405318 0.18482327974201565 2.335071783691088 2.035725804056149 2.256449411969825 -0.15771825745848417" Properties=species:S:1:pos:R:3:forces:R:3 virial="-0.3979739695070192 0.027803465295730422 -0.07349486663612848 0.027803465295730422 -0.40365605231143953 0.14372249439978743 -0.07349486663612848 0.14372249439978743 -0.4197529247140252" config_type=fcc_bulk energy=-4.16595978 stress="0.019176058108162357 -0.0013396877860620945 0.0035412914945463173 -0.0013396877860620945 0.01944984473337286 -0.006925153691519901 0.0035412914945463173 -0.006925153691519901 0.020225459683601944" free_energy=-4.16625051 pbc="T T T"
Ge       0.00000000       0.00000000       0.00000000      -0.00000000       0.00000000      -0.00000000
1
Lattice="-0.21075227526353402 2.016977252789044 2.070819270333168 1.9727717275367884 -0.08649766038577117 1.9721027105354003 2.347747325133722 2.1893741257093384 -0.08835941369412732" Properties=species:S:1:pos:R:3:forces:R:3 virial="0.06277942780044954 -0.09823859970044863 0.3746169474328863 -0.09823859970044863 -0.19586657202297536 0.15473799670151978 0.3746169474328863 0.15473799670151978 0.06965715891557506" config_type=fcc_bulk energy=-4.14850757 stress="-0.00314475530636828 0.004920980781796214 -0.018765361115422916 0.004920980781796214 0.009811373937132413 -0.007751155964190188 -0.018765361115422916 -0.007751155964190188 -0.0034892755127138107" free_energy=-4.14878351 pbc="T T T"
Ge       0.00000000       0.00000000       0.00000000       0.00000000       0.00000000      -0.00000000
1
Lattice="-0.21053763928987063 2.33967332750206 2.0806646614461717 2.1919398802826455 0.07219554282818522 2.1883483801064094 2.20961117896074 2.0652749699710773 -0.09863643720523123" Properties=species:S:1:pos:R:3:forces:R:3 virial="-0.7254804485053652 0.09867448241284217 0.054298789943476734 0.09867448241284217 -0.7614217791226537 -0.06463945763260358 0.054298789943476734 -0.06463945763260358 -0.7085617515115871" config_type=fcc_bulk energy=-4.13699176 stress="0.03318863596539631 -0.004514072684688622 -0.002484012872446478 -0.004514072684688622 0.03483284807397434 0.0029570685644098 -0.002484012872446478 0.0029570685644098 0.032414654424346975" free_energy=-4.13730029 pbc="T T T"
Ge       0.00000000       0.00000000       0.00000000       0.00000000      -0.00000000       0.00000000
1
Lattice="-0.10539173302877959 1.9462283180056632 2.220903981411552 2.1215321866407275 -0.15070536066875403 2.0972504886504026 2.0438471447512536 1.9638597765137615 -0.068948490416999" Properties=species:S:1:pos:R:3:forces:R:3 virial="0.24748485378539561 0.2257207168509617 0.09301971485302374 0.2257207168509617 0.2271079584549412 0.03287167931839647 0.09301971485302374 0.03287167931839647 0.29298727297451027" config_type=fcc_bulk energy=-4.17588737 stress="-0.013027346235759029 -0.011881704621613214 -0.0048964613939272384 -0.011881704621613214 -0.011954727582054105 -0.0017303311345385477 -0.0048964613939272384 -0.0017303311345385477 -0.01542254642791003" free_energy=-4.17611619 pbc="T T T"
Ge       0.00000000       0.00000000       0.00000000      -0.00000000      -0.00000000      -0.00000000
1
Lattice="0.16751537418619028 2.2723551097724894 1.9966489728529095 1.9642418164027933 -0.026526145905335776 2.0808613785388683 2.3133320445900845 2.3343987194060465 -0.0599957773274331" Properties=species:S:1:pos:R:3:forces:R:3 virial="-0.05826103545512 -0.14998740018011997 0.14738527616734373 -0.14998740018011997 0.05021869981160456 0.11912489694717865 0.14738527616734373 0.11912489694717865 -0.03501089304468329" config_type=fcc_bulk energy=-4.17366607 stress="0.0029618284453748534 0.0076249408344880535 -0.007492656111787398 0.0076249408344880535 -0.002552978546121599 -0.0060559773023995435 -0.007492656111787398 -0.0060559773023995435 0.0017798560926298595" free_energy=-4.17395411 pbc="T T T"
Ge       0.00000000       0.00000000       0.00000000      -0.00000000       0.00000000       0.00000000
1